                         Program Version 4.0.1.2 - RELEASE -
|  1> # avogadro generated ORCA file
|  2> # H2 | Single Point | PBE/def2-TZVP
|  3> #
|  4> ! SP PBE D3ZERO def2-TZVP
|  5>
|  6> %maxcore 16384
|  7>
|  8> %pal
|  9>    nprocs 1
| 10> end
| 11>
| 12> * xyz 0 1
| 13>    H      0.000000    0.000000    0.000000
| 14>    H      0.000000    0.000000    1.8000000
| 15> *
| 16>
| 17>
| 18>
| 19>                          ****END OF INPUT****

CARTESIAN COORDINATES (ANGSTROEM)
---------------------------------
  H      0.000000    0.000000    0.000000
  H      0.000000    0.000000    1.800000

 Total Charge           Charge          ....    0
 Multiplicity           Mult            ....    1
 Number of Electrons    NEL             ....    2
 Basis Dimension        Dim             ....   12

ORBITAL ENERGIES
----------------

  NO   OCC          E(Eh)            E(eV)
   0   2.0000      -0.284106        -7.7309
   1   0.0000      -0.163465        -4.4481
   2   0.0000       0.252489         6.8706
   3   0.0000       0.263686         7.1753
   4   0.0000       1.142997        31.1025
   5   0.0000       1.310368        35.6569

MULLIKEN ATOMIC CHARGES
-----------------------
   0 H :    0.000000
   1 H :   -0.000000
Sum of atomic charges:    0.0000000

LOEWDIN ATOMIC CHARGES
----------------------
   0 H :    0.000000
   1 H :   -0.000000

  Mayer bond orders larger than 0.1
B(  0-H ,  1-H ) :   1.0000

Dispersion correction           -0.000030765
FINAL SINGLE POINT ENERGY        -1.018990886555

DIPOLE MOMENT
-------------
                                X             Y             Z
Electronic contribution:     -0.00000      -0.00000      -0.00000
Nuclear contribution   :      0.00000       0.00000       0.00000
                        -----------------------------------------
Total Dipole Moment    :     -0.00000      -0.00000      -0.00000
                        -----------------------------------------
Magnitude (a.u.)       :      0.00000
Magnitude (Debye)      :      0.00000

                             ****ORCA TERMINATED NORMALLY****
TOTAL RUN TIME: 0 days 0 hours 0 minutes 1 seconds 521 msec
