                         Program Version 4.0.1.2 - RELEASE -
|  1> # avogadro generated ORCA file
|  2> # H2 | Single Point | PBE/def2-TZVP
|  3> #
|  4> ! OPT PBE D3ZERO def2-TZVP
|  5>
|  6> %maxcore 16384
|  7>
|  8> %pal
|  9>    nprocs 1
| 10> end
| 11>
| 12> * xyz 0 1
| 13>    H      0.000000    0.000000    0.000000
| 14>    H      0.000000    0.000000    1.000000
| 15> *
| 16>
| 17>
| 18>
| 19>                          ****END OF INPUT****
 Total Charge           Charge          ....    0
 Multiplicity           Mult            ....    1
 Number of Electrons    NEL             ....    2
Dispersion correction           -0.000000275
FINAL SINGLE POINT ENERGY        -1.141474474561
Dispersion correction            ... done
Dispersion correction           -0.000000041
FINAL SINGLE POINT ENERGY        -1.161741648912
Dispersion correction            ... done
Dispersion correction           -0.000000006
FINAL SINGLE POINT ENERGY        -1.162504385177
Dispersion correction            ... done
FINAL SINGLE POINT ENERGY        -1.165843281232
Dispersion correction            ... done
Dispersion correction           -0.000000013
FINAL SINGLE POINT ENERGY        -1.166017041656
Dispersion correction            ... done
Dispersion correction           -0.000000012
FINAL SINGLE POINT ENERGY        -1.166023841075
Dispersion correction            ... done
                    ***********************HURRAY********************

CARTESIAN COORDINATES (ANGSTROEM)
---------------------------------
  H      0.000000    0.000000    0.124434
  H      0.000000    0.000000    0.875566

 Multiplicity           Mult            ....    1
 Number of Electrons    NEL             ....    2
 Basis Dimension        Dim             ....   12

ORBITAL ENERGIES
----------------

  NO   OCC          E(Eh)            E(eV)
   0   2.0000      -0.379222       -10.3191
   1   0.0000       0.040932         1.1138
   2   0.0000       0.182283         4.9602
   3   0.0000       0.439888        11.9700
   4   0.0000       1.108556        30.1654
   5   0.0000       1.108556        30.1654

MULLIKEN ATOMIC CHARGES
-----------------------
   0 H :    0.000000
   1 H :   -0.000000
Sum of atomic charges:   -0.0000000

LOEWDIN ATOMIC CHARGES
----------------------
   0 H :    0.000000
   1 H :   -0.000000

  Mayer bond orders larger than 0.1
B(  0-H ,  1-H ) :   1.0000

Dispersion correction           -0.000000012
FINAL SINGLE POINT ENERGY        -1.166023939433

DIPOLE MOMENT
-------------
                                X             Y             Z
Electronic contribution:     -0.00000      -0.00000      -0.00000
Nuclear contribution   :      0.00000       0.00000      -0.00000
                        -----------------------------------------
Total Dipole Moment    :     -0.00000      -0.00000      -0.00000
                        -----------------------------------------
Magnitude (a.u.)       :      0.00000
Magnitude (Debye)      :      0.00000

                             ****ORCA TERMINATED NORMALLY****
TOTAL RUN TIME: 0 days 0 hours 0 minutes 14 seconds 150 msec
